! Touchstone file exported from HFSS 2026.1.0
!        File:           C:/Users/SLOPEZ~1.SYN/AppData/Local/Temp/tmp2echlgcq.ansys/array.aedt
!        Generated:      09:51:33 AM Jun  1, 2026
!        Design:         Array_Simple
!        Project:        array
!        Setup:          MySetupAuto
!        Solution:       LastAdaptive
!
# GHz S MA R 50.000000
! Terminal data exported
! Port[1] = circ_patch_array[1,1]Circ_Patch_5GHz1_1
! Port[2] = circ_patch_array[1,2]Circ_Patch_5GHz1_1
! Port[3] = circ_patch_array[1,3]Circ_Patch_5GHz1_1
! Port[4] = circ_patch_array[2,1]Circ_Patch_5GHz1_1
! Port[5] = circ_patch_array[2,3]Circ_Patch_5GHz1_1
! Port[6] = circ_patch_array[3,1]Circ_Patch_5GHz1_1
! Port[7] = circ_patch_array[3,2]Circ_Patch_5GHz1_1
! Port[8] = circ_patch_array[3,3]Circ_Patch_5GHz1_1
5                              0.31327345219352 156.735408421912 0.0455675403948034 4.17474194073269 0.0144230019250025 -147.764304925274 0.0320941816308482 -161.789289377298 
                               0.0114864377628207 79.8933818847041 0.0304376416923563 118.229751114445 0.0290036683469558 47.6488788471253 0.00907402045413252 63.2388613323432 
                               0.0455675403948034 4.17474194073269 0.354461255043788 157.320721655929 0.0337762467410817 87.7123445029112 0.0440423094840318 -48.3856280165528 
                               0.0353590744445732 -170.232249687182 0.00113651541223806 128.783076600465 0.0258484706762368 -172.360793087093 0.0231872854561271 57.4455056379865 
                               0.0144230019250025 -147.764304925274 0.0337762467410817 87.7123445029112 0.324305510067144 156.305162851982 0.0328392466650301 -128.406680162637 
                               0.0496302190827856 -138.444015579372 0.0150856605897386 -58.307464553626 0.0102136808254032 -75.8006261288485 0.032319363594031 125.927771414224 
                               0.0320941816308482 -161.789289377298 0.0440423094840317 -48.3856280165528 0.0328392466650301 -128.406680162637 0.335702161383148 155.587527742105 
                               0.0544931674837365 114.194993020885 0.0319193142407157 -124.095704863236 0.0369337833946095 -179.146841589568 0.00443247512212926 -85.4066955719365 
                               0.0114864377628207 79.8933818847041 0.0353590744445732 -170.232249687182 0.0496302190827856 -138.444015579372 0.0544931674837365 114.194993020885 
                               0.335823272894277 155.968127134093 0.0245780321992875 -150.557122653636 0.0470915096640846 -48.9545218701302 0.0190638569781955 -155.406677930677 
                               0.0304376416923563 118.229751114445 0.00113651541223806 128.783076600465 0.0150856605897386 -58.307464553626 0.0319193142407157 -124.095704863236 
                               0.0245780321992875 -150.557122653637 0.318752567578235 156.349394729141 0.0456924317632396 39.0459672253328 0.00725773886715557 -165.827363843926 
                               0.0290036683469558 47.6488788471253 0.0258484706762368 -172.360793087093 0.0102136808254032 -75.8006261288485 0.0369337833946095 -179.146841589568 
                               0.0470915096640846 -48.9545218701302 0.0456924317632396 39.0459672253328 0.352046206407962 157.493354259624 0.0106257099169675 98.0808539882837 
                               0.00907402045413253 63.2388613323432 0.0231872854561271 57.4455056379866 0.032319363594031 125.927771414224 0.00443247512212926 -85.4066955719365 
                               0.0190638569781955 -155.406677930677 0.00725773886715558 -165.827363843926 0.0106257099169675 98.0808539882837 0.308426519907011 155.603396036195 
